mpprun info: Starting impi run on 1 node ( 32 rank X 1 th ) for job ID 27772682
 argument  1 = myjob.nwi
                                         
                                         
 
 
             Northwest Computational Chemistry Package (NWChem) 7.0.2
             --------------------------------------------------------
 
 
                    Environmental Molecular Sciences Laboratory
                       Pacific Northwest National Laboratory
                                Richland, WA 99352
 
                              Copyright (c) 1994-2020
                       Pacific Northwest National Laboratory
                            Battelle Memorial Institute
 
             NWChem is an open-source computational chemistry package
                        distributed under the terms of the
                      Educational Community License (ECL) 2.0
             A copy of the license is included with this distribution
                              in the LICENSE.TXT file
 
                                  ACKNOWLEDGMENT
                                  --------------

            This software and its documentation were developed at the
            EMSL at Pacific Northwest National Laboratory, a multiprogram
            national laboratory, operated for the U.S. Department of Energy
            by Battelle under Contract Number DE-AC05-76RL01830. Support
            for this work was provided by the Department of Energy Office
            of Biological and Environmental Research, Office of Basic
            Energy Sciences, and the Office of Advanced Scientific Computing.


           Job information
           ---------------

    hostname        = n655
    program         = XXX
    date            = Thu Sep 14 11:24:52 2023

    compiled        = Sat_Jan_23_20:46:59_2021
    source          = XXX
    nwchem branch   = 7.0.2
    nwchem revision = b9985dfa
    ga revision     = N/A
    use scalapack   = T
    input           = myjob.nwi
    prefix          = myjob.
    data base       = XXX
    status          = startup
    nproc           =       31
    time left       =     -1s



           Memory information
           ------------------

    heap     =   33554426 doubles =    256.0 Mbytes
    stack    =   33554431 doubles =    256.0 Mbytes
    global   =   67108864 doubles =    512.0 Mbytes (distinct from heap & stack)
    total    =  134217721 doubles =   1024.0 Mbytes
    verify   = yes
    hardfail = no 


           Directory information
           ---------------------
 
  0 permanent = XXX
  0 scratch   = XXX
 
 
 
 
                                NWChem Input Module
                                -------------------
 
 
                                       myjob
                                       -----

 Scaling coordinates for geometry "geometry" by  1.889725989
 (inverse scale =  0.529177249)

 
 
                             Geometry "geometry" -> ""
                             -------------------------
 
 Output coordinates in angstroms (scale by  1.889725989 to convert to a.u.)
 
  No.       Tag          Charge          X              Y              Z
 ---- ---------------- ---------- -------------- -------------- --------------
    1 O                    8.0000     0.00000000     0.00000000     0.11926200
    2 H                    1.0000     0.00000000     0.76323900    -0.47704700
    3 H                    1.0000     0.00000000    -0.76323900    -0.47704700
 
      Atomic Mass 
      ----------- 
 
      O                 15.994910
      H                  1.007825
 

 Effective nuclear repulsion energy (a.u.)       9.0882944231

            Nuclear Dipole moment (a.u.) 
            ----------------------------
        X                 Y               Z
 ---------------- ---------------- ----------------
     0.0000000000     0.0000000000     0.0000037795
 
 
            XYZ format geometry
            -------------------
     3
 geometry
 O                     0.00000000     0.00000000     0.11926200
 H                     0.00000000     0.76323900    -0.47704700
 H                     0.00000000    -0.76323900    -0.47704700
 
 ==============================================================================
                                internuclear distances
 ------------------------------------------------------------------------------
       center one      |      center two      | atomic units |  angstroms
 ------------------------------------------------------------------------------
    2 H                |   1 O                |     1.83032  |     0.96857
    3 H                |   1 O                |     1.83032  |     0.96857
 ------------------------------------------------------------------------------
                         number of included internuclear distances:          2
 ==============================================================================



 ==============================================================================
                                 internuclear angles
 ------------------------------------------------------------------------------
        center 1       |       center 2       |       center 3       |  degrees
 ------------------------------------------------------------------------------
    2 H                |   1 O                |   3 H                |   104.00
 ------------------------------------------------------------------------------
                            number of included internuclear angles:          1
 ==============================================================================



  library name resolved from: environment
  library file name is: <
 /software/sse/manual/NWChem/7.0.2/i20u1/nsc1/data/libraries/>
  
 
                                 NWChem DFT Module
                                 -----------------
 
 
                                       myjob
 
 


 Summary of "ao basis" -> "ao basis" (cartesian)
 ------------------------------------------------------------------------------
       Tag                 Description            Shells   Functions and Types
 ---------------- ------------------------------  ------  ---------------------
 O                           6-31G*                  6       15   3s2p1d
 H                           6-31G*                  2        2   2s


  Caching 1-el integrals 
 
            General Information
            -------------------
          SCF calculation type: DFT
          Wavefunction type:  spin polarized.
          No. of atoms     :     3
          No. of electrons :    10
           Alpha electrons :     5
            Beta electrons :     5
          Charge           :     0
          Spin multiplicity:     1
          Use of symmetry is: off; symmetry adaption is: off
          Maximum number of iterations: 100
          AO basis - number of functions:    19
                     number of shells:    10
          Convergence on energy requested:  1.00D-05
          Convergence on density requested:  1.00D-04
          Convergence on gradient requested:  5.00D-03
 
              XC Information
              --------------
                        PBE96 Method XC Functional
          PerdewBurkeErnzerhof Exchange Functional  1.000          
            Perdew 1991 LDA Correlation Functional  1.000 local    
           PerdewBurkeErnz. Correlation Functional  1.000 non-local
 
             Grid Information
             ----------------
          Grid used for XC integration:  medium    
          Radial quadrature: Mura-Knowles        
          Angular quadrature: Lebedev. 
          Tag              B.-S. Rad. Rad. Pts. Rad. Cut. Ang. Pts.
          ---              ---------- --------- --------- ---------
          O                   0.60       49           5.0       434
          H                   0.35       45           6.0       434
          Grid pruning is: on 
          Number of quadrature shells:   139
          Spatial weights used:  Erf1
 
          Convergence Information
          -----------------------
          Convergence aids based upon iterative change in 
          total energy or number of iterations. 
          Levelshifting, if invoked, occurs when the 
          HOMO/LUMO gap drops below (HL_TOL):  1.00D-02
          DIIS, if invoked, will attempt to extrapolate 
          using up to (NFOCK): 10 stored Fock matrices.

                    Damping( 0%)  Levelshifting(0.5)       DIIS
                  --------------- ------------------- ---------------
          dE  on:    start            ASAP                start   
          dE off:    2 iters        100 iters           100 iters 

 
      Screening Tolerance Information
      -------------------------------
          Density screening/tol_rho:  1.00D-10
          AO Gaussian exp screening on grid/accAOfunc:  12
          CD Gaussian exp screening on grid/accCDfunc:  20
          XC Gaussian exp screening on grid/accXCfunc:  20
          Schwarz screening/accCoul:  1.00D-08

 
      Superposition of Atomic Density Guess
      -------------------------------------
 
 Sum of atomic energies:         -75.75081731
 
      Non-variational initial energy
      ------------------------------

 Total energy =     -75.897951
 1-e energy   =    -121.563398
 2-e energy   =      36.577153
 HOMO         =      -0.466872
 LUMO         =       0.111396
 
   Time after variat. SCF:      0.2
   Time prior to 1st pass:      0.2

 #quartets = 1.540D+03 #integrals = 8.874D+03 #direct =  0.0% #cached =100.0%


 Integral file          = XXX
 Record size in doubles =  65536        No. of integs per rec  =  43688
 Max. records in memory =      2        Max. records in file   =  84121
 No. of bits per label  =      8        No. of bits per value  =     64


File balance: exchanges=     0  moved=     0  time=   0.0


 Grid_pts file          = XXX
 Record size in doubles =  12289        No. of grid_pts per rec  =   3070
 Max. records in memory =      2        Max. recs in file   =    448617


           Memory utilization after 1st SCF pass: 
           Heap Space remaining (MW):       33.40            33397146
          Stack Space remaining (MW):       33.55            33554116

   convergence    iter        energy       DeltaE   RMS-Dens  Diis-err    time
 ---------------- ----- ----------------- --------- --------- ---------  ------
 d= 0,ls=0.0,diis     1    -76.2819649991 -8.54D+01  2.61D-02  1.07D-01     2.1
                                                     2.61D-02  1.07D-01
 d= 0,ls=0.0,diis     2    -76.2471835552  3.48D-02  1.53D-02  2.01D-01     2.2
                                                     1.53D-02  2.01D-01
 d= 0,ls=0.0,diis     3    -76.3203130924 -7.31D-02  1.82D-03  5.78D-03     2.2
                                                     1.82D-03  5.78D-03
 d= 0,ls=0.0,diis     4    -76.3223413963 -2.03D-03  2.45D-04  5.55D-05     2.2
                                                     2.45D-04  5.55D-05
 d= 0,ls=0.0,diis     5    -76.3223641149 -2.27D-05  1.56D-05  6.53D-08     2.3
                                                     1.56D-05  6.53D-08
 d= 0,ls=0.0,diis     6    -76.3223641532 -3.83D-08  1.42D-06  2.63D-09     2.3
                                                     1.42D-06  2.63D-09


         Total DFT energy =      -76.322364153180
      One electron energy =     -122.896405168255
           Coulomb energy =       46.736105782499
    Exchange-Corr. energy =       -9.250359190559
 Nuclear repulsion energy =        9.088294423135

 Numeric. integr. density =       10.000001152579

     Total iterative time =      2.1s


 
                    DFT Final Alpha Molecular Orbital Analysis
                    ------------------------------------------
 
 Vector    1  Occ=1.000000D+00  E=-1.875580D+01
              MO Center=  7.7D-19,  7.0D-11,  1.2D-01, r^2= 1.5D-02
   Bfn.  Coefficient  Atom+Function         Bfn.  Coefficient  Atom+Function  
  ----- ------------  ---------------      ----- ------------  ---------------
     1      0.992583  1 O  s                  2      0.027200  1 O  s          
 
 Vector    2  Occ=1.000000D+00  E=-9.059105D-01
              MO Center=  1.9D-16, -1.5D-08, -9.7D-02, r^2= 5.0D-01
   Bfn.  Coefficient  Atom+Function         Bfn.  Coefficient  Atom+Function  
  ----- ------------  ---------------      ----- ------------  ---------------
     2      0.465946  1 O  s                  6      0.434873  1 O  s          
     1     -0.208393  1 O  s                 16      0.141240  2 H  s          
    18      0.141240  3 H  s                  5     -0.136491  1 O  pz         
     9     -0.064880  1 O  pz         
 
 Vector    3  Occ=1.000000D+00  E=-4.615660D-01
              MO Center=  6.7D-17,  2.4D-08, -1.1D-01, r^2= 7.9D-01
   Bfn.  Coefficient  Atom+Function         Bfn.  Coefficient  Atom+Function  
  ----- ------------  ---------------      ----- ------------  ---------------
     4      0.518123  1 O  py                 8      0.264816  1 O  py         
    16      0.239741  2 H  s                 18     -0.239741  3 H  s          
    17      0.143686  2 H  s                 19     -0.143686  3 H  s          
    14     -0.067407  1 O  dyz        
 
 Vector    4  Occ=1.000000D+00  E=-3.111692D-01
              MO Center= -8.2D-17, -5.4D-09,  2.0D-01, r^2= 7.0D-01
   Bfn.  Coefficient  Atom+Function         Bfn.  Coefficient  Atom+Function  
  ----- ------------  ---------------      ----- ------------  ---------------
     5      0.548760  1 O  pz                 6      0.421842  1 O  s          
     9      0.369188  1 O  pz                 2      0.183291  1 O  s          
    16     -0.143489  2 H  s                 18     -0.143489  3 H  s          
    17     -0.118076  2 H  s                 19     -0.118076  3 H  s          
     1     -0.091339  1 O  s                 15     -0.052497  1 O  dzz        
 
 Vector    5  Occ=1.000000D+00  E=-2.273258D-01
              MO Center= -2.5D-16,  6.1D-11,  9.8D-02, r^2= 6.0D-01
   Bfn.  Coefficient  Atom+Function         Bfn.  Coefficient  Atom+Function  
  ----- ------------  ---------------      ----- ------------  ---------------
     3      0.641845  1 O  px                 7      0.508966  1 O  px         
    12     -0.062899  1 O  dxz        
 
 Vector    6  Occ=0.000000D+00  E= 4.165993D-02
              MO Center= -5.3D-17, -4.4D-08, -6.1D-01, r^2= 2.4D+00
   Bfn.  Coefficient  Atom+Function         Bfn.  Coefficient  Atom+Function  
  ----- ------------  ---------------      ----- ------------  ---------------
     6      1.219849  1 O  s                 17     -0.949721  2 H  s          
    19     -0.949721  3 H  s                  9     -0.467016  1 O  pz         
     5     -0.296251  1 O  pz                 2      0.136954  1 O  s          
    16     -0.111122  2 H  s                 18     -0.111122  3 H  s          
     1     -0.100715  1 O  s                 10     -0.053623  1 O  dxx        
 
 Vector    7  Occ=0.000000D+00  E= 1.241349D-01
              MO Center=  7.8D-18,  3.9D-08, -5.5D-01, r^2= 2.4D+00
   Bfn.  Coefficient  Atom+Function         Bfn.  Coefficient  Atom+Function  
  ----- ------------  ---------------      ----- ------------  ---------------
    17      1.246253  2 H  s                 19     -1.246253  3 H  s          
     8     -0.741305  1 O  py                 4     -0.434894  1 O  py         
    16      0.126228  2 H  s                 18     -0.126228  3 H  s          
    14      0.027666  1 O  dyz        
 
 Vector    8  Occ=0.000000D+00  E= 7.287125D-01
              MO Center= -1.0D-16, -1.3D-08, -1.8D-01, r^2= 1.6D+00
   Bfn.  Coefficient  Atom+Function         Bfn.  Coefficient  Atom+Function  
  ----- ------------  ---------------      ----- ------------  ---------------
    16      0.835419  2 H  s                 18     -0.835419  3 H  s          
    17     -0.702888  2 H  s                 19      0.702888  3 H  s          
     8     -0.373430  1 O  py                14     -0.346784  1 O  dyz        
     4     -0.188444  1 O  py         
 
 Vector    9  Occ=0.000000D+00  E= 8.036589D-01
              MO Center=  4.9D-16,  1.4D-08, -2.2D-01, r^2= 1.3D+00
   Bfn.  Coefficient  Atom+Function         Bfn.  Coefficient  Atom+Function  
  ----- ------------  ---------------      ----- ------------  ---------------
    16      0.710261  2 H  s                 18      0.710261  3 H  s          
     5      0.700202  1 O  pz                17     -0.576585  2 H  s          
    19     -0.576585  3 H  s                  9     -0.393533  1 O  pz         
     6      0.181470  1 O  s                 13      0.150483  1 O  dyy        
     2     -0.142890  1 O  s                 10     -0.121725  1 O  dxx        
 
 Vector   10  Occ=0.000000D+00  E= 8.430042D-01
              MO Center=  2.7D-14,  5.3D-13,  1.1D-01, r^2= 1.1D+00
   Bfn.  Coefficient  Atom+Function         Bfn.  Coefficient  Atom+Function  
  ----- ------------  ---------------      ----- ------------  ---------------
     7     -1.037132  1 O  px                 3      0.961271  1 O  px         
    12      0.030597  1 O  dxz        
 
 Vector   11  Occ=0.000000D+00  E= 8.518992D-01
              MO Center= -2.4D-14,  9.9D-09,  3.2D-01, r^2= 1.4D+00
   Bfn.  Coefficient  Atom+Function         Bfn.  Coefficient  Atom+Function  
  ----- ------------  ---------------      ----- ------------  ---------------
     6      1.333369  1 O  s                  9      0.848236  1 O  pz         
     2     -0.807548  1 O  s                  5     -0.572325  1 O  pz         
    16      0.469212  2 H  s                 18      0.469212  3 H  s          
    17     -0.360336  2 H  s                 19     -0.360336  3 H  s          
    10     -0.314900  1 O  dxx               15     -0.266512  1 O  dzz        
 
 Vector   12  Occ=0.000000D+00  E= 1.011445D+00
              MO Center=  3.9D-16, -1.8D-08,  1.1D-01, r^2= 1.5D+00
   Bfn.  Coefficient  Atom+Function         Bfn.  Coefficient  Atom+Function  
  ----- ------------  ---------------      ----- ------------  ---------------
     8      1.651733  1 O  py                 4     -0.976785  1 O  py         
    17     -0.931990  2 H  s                 19      0.931990  3 H  s          
    14      0.041272  1 O  dyz        
 
 Vector   13  Occ=0.000000D+00  E= 1.146085D+00
              MO Center= -2.7D-15,  7.0D-09, -3.6D-01, r^2= 1.4D+00
   Bfn.  Coefficient  Atom+Function         Bfn.  Coefficient  Atom+Function  
  ----- ------------  ---------------      ----- ------------  ---------------
     6      3.602611  1 O  s                  2     -1.470419  1 O  s          
     9     -1.080792  1 O  pz                17     -0.781879  2 H  s          
    19     -0.781879  3 H  s                 13     -0.660425  1 O  dyy        
     5      0.385356  1 O  pz                15     -0.383140  1 O  dzz        
    16     -0.340579  2 H  s                 18     -0.340579  3 H  s          
 
 Vector   14  Occ=0.000000D+00  E= 1.659535D+00
              MO Center= -9.2D-17, -4.6D-10,  1.7D-01, r^2= 6.2D-01
   Bfn.  Coefficient  Atom+Function         Bfn.  Coefficient  Atom+Function  
  ----- ------------  ---------------      ----- ------------  ---------------
    15      1.008796  1 O  dzz               13     -0.588310  1 O  dyy        
    10     -0.349230  1 O  dxx                6     -0.271474  1 O  s          
     9      0.152760  1 O  pz                 2      0.097810  1 O  s          
    16      0.086694  2 H  s                 18      0.086694  3 H  s          
    17      0.045986  2 H  s                 19      0.045986  3 H  s          
 
 Vector   15  Occ=0.000000D+00  E= 1.676042D+00
              MO Center= -4.9D-16,  6.6D-11,  1.2D-01, r^2= 6.1D-01
   Bfn.  Coefficient  Atom+Function         Bfn.  Coefficient  Atom+Function  
  ----- ------------  ---------------      ----- ------------  ---------------
    11      1.732051  1 O  dxy        
 
 Vector   16  Occ=0.000000D+00  E= 1.711127D+00
              MO Center= -1.7D-16, -1.3D-10,  1.4D-01, r^2= 6.1D-01
   Bfn.  Coefficient  Atom+Function         Bfn.  Coefficient  Atom+Function  
  ----- ------------  ---------------      ----- ------------  ---------------
    12      1.730638  1 O  dxz                7      0.036834  1 O  px         
 
 Vector   17  Occ=0.000000D+00  E= 2.206237D+00
              MO Center= -2.8D-16, -2.1D-10,  1.0D-03, r^2= 8.3D-01
   Bfn.  Coefficient  Atom+Function         Bfn.  Coefficient  Atom+Function  
  ----- ------------  ---------------      ----- ------------  ---------------
     6      1.543457  1 O  s                 10     -1.126314  1 O  dxx        
    16     -0.813623  2 H  s                 18     -0.813623  3 H  s          
     9     -0.740332  1 O  pz                13      0.742171  1 O  dyy        
     2     -0.522972  1 O  s                 17     -0.142277  2 H  s          
    19     -0.142277  3 H  s                 15      0.066150  1 O  dzz        
 
 Vector   18  Occ=0.000000D+00  E= 2.497891D+00
              MO Center=  9.3D-17,  4.7D-10,  6.2D-02, r^2= 8.7D-01
   Bfn.  Coefficient  Atom+Function         Bfn.  Coefficient  Atom+Function  
  ----- ------------  ---------------      ----- ------------  ---------------
    14      2.202194  1 O  dyz               16      0.926716  2 H  s          
    18     -0.926716  3 H  s                  8     -0.851837  1 O  py         
    17     -0.050067  2 H  s                 19      0.050067  3 H  s          
     4      0.038424  1 O  py         
 
 Vector   19  Occ=0.000000D+00  E= 3.466198D+00
              MO Center= -3.3D-16,  1.2D-09,  1.2D-01, r^2= 1.0D+00
   Bfn.  Coefficient  Atom+Function         Bfn.  Coefficient  Atom+Function  
  ----- ------------  ---------------      ----- ------------  ---------------
     6      3.720161  1 O  s                 10     -1.584082  1 O  dxx        
    15     -1.553738  1 O  dzz               13     -1.528387  1 O  dyy        
    17     -0.561163  2 H  s                 19     -0.561163  3 H  s          
     1     -0.469111  1 O  s                  9     -0.337549  1 O  pz         
     2      0.274009  1 O  s                  5      0.117007  1 O  pz         
 
 
                     DFT Final Beta Molecular Orbital Analysis
                     -----------------------------------------
 
 Vector    1  Occ=1.000000D+00  E=-1.875580D+01
              MO Center=  2.3D-19,  7.0D-11,  1.2D-01, r^2= 1.5D-02
   Bfn.  Coefficient  Atom+Function         Bfn.  Coefficient  Atom+Function  
  ----- ------------  ---------------      ----- ------------  ---------------
     1      0.992583  1 O  s                  2      0.027200  1 O  s          
 
 Vector    2  Occ=1.000000D+00  E=-9.059105D-01
              MO Center=  4.5D-16, -1.5D-08, -9.7D-02, r^2= 5.0D-01
   Bfn.  Coefficient  Atom+Function         Bfn.  Coefficient  Atom+Function  
  ----- ------------  ---------------      ----- ------------  ---------------
     2      0.465946  1 O  s                  6      0.434873  1 O  s          
     1     -0.208393  1 O  s                 16      0.141240  2 H  s          
    18      0.141240  3 H  s                  5     -0.136491  1 O  pz         
     9     -0.064880  1 O  pz         
 
 Vector    3  Occ=1.000000D+00  E=-4.615660D-01
              MO Center=  4.7D-17,  2.4D-08, -1.1D-01, r^2= 7.9D-01
   Bfn.  Coefficient  Atom+Function         Bfn.  Coefficient  Atom+Function  
  ----- ------------  ---------------      ----- ------------  ---------------
     4      0.518123  1 O  py                 8      0.264816  1 O  py         
    16      0.239741  2 H  s                 18     -0.239741  3 H  s          
    17      0.143686  2 H  s                 19     -0.143686  3 H  s          
    14     -0.067407  1 O  dyz        
 
 Vector    4  Occ=1.000000D+00  E=-3.111692D-01
              MO Center=  4.1D-16, -5.4D-09,  2.0D-01, r^2= 7.0D-01
   Bfn.  Coefficient  Atom+Function         Bfn.  Coefficient  Atom+Function  
  ----- ------------  ---------------      ----- ------------  ---------------
     5      0.548760  1 O  pz                 6      0.421842  1 O  s          
     9      0.369188  1 O  pz                 2      0.183291  1 O  s          
    16     -0.143489  2 H  s                 18     -0.143489  3 H  s          
    17     -0.118076  2 H  s                 19     -0.118076  3 H  s          
     1     -0.091339  1 O  s                 15     -0.052497  1 O  dzz        
 
 Vector    5  Occ=1.000000D+00  E=-2.273258D-01
              MO Center= -6.3D-16,  6.1D-11,  9.8D-02, r^2= 6.0D-01
   Bfn.  Coefficient  Atom+Function         Bfn.  Coefficient  Atom+Function  
  ----- ------------  ---------------      ----- ------------  ---------------
     3      0.641845  1 O  px                 7      0.508966  1 O  px         
    12     -0.062899  1 O  dxz        
 
 Vector    6  Occ=0.000000D+00  E= 4.165993D-02
              MO Center= -1.2D-16, -4.4D-08, -6.1D-01, r^2= 2.4D+00
   Bfn.  Coefficient  Atom+Function         Bfn.  Coefficient  Atom+Function  
  ----- ------------  ---------------      ----- ------------  ---------------
     6      1.219849  1 O  s                 17     -0.949721  2 H  s          
    19     -0.949721  3 H  s                  9     -0.467016  1 O  pz         
     5     -0.296251  1 O  pz                 2      0.136954  1 O  s          
    16     -0.111122  2 H  s                 18     -0.111122  3 H  s          
     1     -0.100715  1 O  s                 10     -0.053623  1 O  dxx        
 
 Vector    7  Occ=0.000000D+00  E= 1.241349D-01
              MO Center= -9.1D-19,  3.9D-08, -5.5D-01, r^2= 2.4D+00
   Bfn.  Coefficient  Atom+Function         Bfn.  Coefficient  Atom+Function  
  ----- ------------  ---------------      ----- ------------  ---------------
    17      1.246253  2 H  s                 19     -1.246253  3 H  s          
     8     -0.741305  1 O  py                 4     -0.434894  1 O  py         
    16      0.126228  2 H  s                 18     -0.126228  3 H  s          
    14      0.027666  1 O  dyz        
 
 Vector    8  Occ=0.000000D+00  E= 7.287125D-01
              MO Center= -4.4D-17, -1.3D-08, -1.8D-01, r^2= 1.6D+00
   Bfn.  Coefficient  Atom+Function         Bfn.  Coefficient  Atom+Function  
  ----- ------------  ---------------      ----- ------------  ---------------
    16      0.835419  2 H  s                 18     -0.835419  3 H  s          
    17     -0.702888  2 H  s                 19      0.702888  3 H  s          
     8     -0.373430  1 O  py                14     -0.346784  1 O  dyz        
     4     -0.188444  1 O  py         
 
 Vector    9  Occ=0.000000D+00  E= 8.036589D-01
              MO Center= -2.0D-15,  1.4D-08, -2.2D-01, r^2= 1.3D+00
   Bfn.  Coefficient  Atom+Function         Bfn.  Coefficient  Atom+Function  
  ----- ------------  ---------------      ----- ------------  ---------------
    16      0.710261  2 H  s                 18      0.710261  3 H  s          
     5      0.700202  1 O  pz                17     -0.576585  2 H  s          
    19     -0.576585  3 H  s                  9     -0.393533  1 O  pz         
     6      0.181470  1 O  s                 13      0.150483  1 O  dyy        
     2     -0.142890  1 O  s                 10     -0.121725  1 O  dxx        
 
 Vector   10  Occ=0.000000D+00  E= 8.430042D-01
              MO Center=  2.5D-14,  5.3D-13,  1.1D-01, r^2= 1.1D+00
   Bfn.  Coefficient  Atom+Function         Bfn.  Coefficient  Atom+Function  
  ----- ------------  ---------------      ----- ------------  ---------------
     7     -1.037132  1 O  px                 3      0.961271  1 O  px         
    12      0.030597  1 O  dxz        
 
 Vector   11  Occ=0.000000D+00  E= 8.518992D-01
              MO Center= -2.0D-14,  9.9D-09,  3.2D-01, r^2= 1.4D+00
   Bfn.  Coefficient  Atom+Function         Bfn.  Coefficient  Atom+Function  
  ----- ------------  ---------------      ----- ------------  ---------------
     6      1.333369  1 O  s                  9      0.848236  1 O  pz         
     2     -0.807548  1 O  s                  5     -0.572325  1 O  pz         
    16      0.469212  2 H  s                 18      0.469212  3 H  s          
    17     -0.360336  2 H  s                 19     -0.360336  3 H  s          
    10     -0.314900  1 O  dxx               15     -0.266512  1 O  dzz        
 
 Vector   12  Occ=0.000000D+00  E= 1.011445D+00
              MO Center=  9.1D-17, -1.8D-08,  1.1D-01, r^2= 1.5D+00
   Bfn.  Coefficient  Atom+Function         Bfn.  Coefficient  Atom+Function  
  ----- ------------  ---------------      ----- ------------  ---------------
     8      1.651733  1 O  py                 4     -0.976785  1 O  py         
    17     -0.931990  2 H  s                 19      0.931990  3 H  s          
    14      0.041272  1 O  dyz        
 
 Vector   13  Occ=0.000000D+00  E= 1.146085D+00
              MO Center= -2.1D-15,  7.0D-09, -3.6D-01, r^2= 1.4D+00
   Bfn.  Coefficient  Atom+Function         Bfn.  Coefficient  Atom+Function  
  ----- ------------  ---------------      ----- ------------  ---------------
     6      3.602611  1 O  s                  2     -1.470419  1 O  s          
     9     -1.080792  1 O  pz                17     -0.781879  2 H  s          
    19     -0.781879  3 H  s                 13     -0.660425  1 O  dyy        
     5      0.385356  1 O  pz                15     -0.383140  1 O  dzz        
    16     -0.340579  2 H  s                 18     -0.340579  3 H  s          
 
 Vector   14  Occ=0.000000D+00  E= 1.659535D+00
              MO Center=  9.7D-17, -4.6D-10,  1.7D-01, r^2= 6.2D-01
   Bfn.  Coefficient  Atom+Function         Bfn.  Coefficient  Atom+Function  
  ----- ------------  ---------------      ----- ------------  ---------------
    15      1.008796  1 O  dzz               13     -0.588310  1 O  dyy        
    10     -0.349230  1 O  dxx                6     -0.271474  1 O  s          
     9      0.152760  1 O  pz                 2      0.097810  1 O  s          
    16      0.086694  2 H  s                 18      0.086694  3 H  s          
    17      0.045986  2 H  s                 19      0.045986  3 H  s          
 
 Vector   15  Occ=0.000000D+00  E= 1.676042D+00
              MO Center= -2.3D-16,  6.6D-11,  1.2D-01, r^2= 6.1D-01
   Bfn.  Coefficient  Atom+Function         Bfn.  Coefficient  Atom+Function  
  ----- ------------  ---------------      ----- ------------  ---------------
    11      1.732051  1 O  dxy        
 
 Vector   16  Occ=0.000000D+00  E= 1.711127D+00
              MO Center= -1.8D-16, -1.3D-10,  1.4D-01, r^2= 6.1D-01
   Bfn.  Coefficient  Atom+Function         Bfn.  Coefficient  Atom+Function  
  ----- ------------  ---------------      ----- ------------  ---------------
    12      1.730638  1 O  dxz                7      0.036834  1 O  px         
 
 Vector   17  Occ=0.000000D+00  E= 2.206237D+00
              MO Center= -2.3D-16, -2.1D-10,  1.0D-03, r^2= 8.3D-01
   Bfn.  Coefficient  Atom+Function         Bfn.  Coefficient  Atom+Function  
  ----- ------------  ---------------      ----- ------------  ---------------
     6      1.543457  1 O  s                 10     -1.126314  1 O  dxx        
    16     -0.813623  2 H  s                 18     -0.813623  3 H  s          
     9     -0.740332  1 O  pz                13      0.742171  1 O  dyy        
     2     -0.522972  1 O  s                 17     -0.142277  2 H  s          
    19     -0.142277  3 H  s                 15      0.066150  1 O  dzz        
 
 Vector   18  Occ=0.000000D+00  E= 2.497891D+00
              MO Center= -6.0D-18,  4.7D-10,  6.2D-02, r^2= 8.7D-01
   Bfn.  Coefficient  Atom+Function         Bfn.  Coefficient  Atom+Function  
  ----- ------------  ---------------      ----- ------------  ---------------
    14      2.202194  1 O  dyz               16      0.926716  2 H  s          
    18     -0.926716  3 H  s                  8     -0.851837  1 O  py         
    17     -0.050067  2 H  s                 19      0.050067  3 H  s          
     4      0.038424  1 O  py         
 
 Vector   19  Occ=0.000000D+00  E= 3.466198D+00
              MO Center= -4.6D-17,  1.2D-09,  1.2D-01, r^2= 1.0D+00
   Bfn.  Coefficient  Atom+Function         Bfn.  Coefficient  Atom+Function  
  ----- ------------  ---------------      ----- ------------  ---------------
     6      3.720161  1 O  s                 10     -1.584082  1 O  dxx        
    15     -1.553738  1 O  dzz               13     -1.528387  1 O  dyy        
    17     -0.561163  2 H  s                 19     -0.561163  3 H  s          
     1     -0.469111  1 O  s                  9     -0.337549  1 O  pz         
     2      0.274009  1 O  s                  5      0.117007  1 O  pz         
 

   alpha - beta orbital overlaps 
   ----------------------------- 


   alpha      1      2      3      4      5      6      7      8      9     10
    beta      1      2      3      4      5      6      7      8      9     10
 overlap   1.000  1.000  1.000  1.000  1.000  1.000  1.000  1.000  1.000  1.000


   alpha     11     12     13     14     15     16     17     18     19
    beta     11     12     13     14     15     16     17     18     19
 overlap   1.000  1.000  1.000  1.000  1.000  1.000  1.000  1.000  1.000

     --------------------------
     Expectation value of S2:  
     --------------------------
      <S2> =     -0.0000 (Exact =     0.0000)
 

 center of mass
 --------------
 x =   0.00000000 y =   0.00000000 z =   0.09926001

 moments of inertia (a.u.)
 ------------------
           6.466143128578           0.000000000000           0.000000000000
           0.000000000000           2.273055851485           0.000000000000
           0.000000000000           0.000000000000           4.193087277093
 
     Multipole analysis of the density
     ---------------------------------
 
     L   x y z        total         alpha         beta         nuclear
     -   - - -        -----         -----         ----         -------
     0   0 0 0     -0.000000     -5.000000     -5.000000     10.000000
 
     1   1 0 0     -0.000000      0.000000     -0.000000      0.000000
     1   0 1 0     -0.000000     -0.000000     -0.000000      0.000000
     1   0 0 1     -0.806079     -0.403042     -0.403042      0.000004
 
     2   2 0 0     -5.367505     -2.683752     -2.683752      0.000000
     2   1 1 0      0.000000      0.000000      0.000000      0.000000
     2   1 0 1      0.000000      0.000000     -0.000000      0.000000
     2   0 2 0     -3.201213     -3.680872     -3.680872      4.160531
     2   0 1 1      0.000000      0.000000      0.000000      0.000000
     2   0 0 2     -4.473128     -3.252416     -3.252416      2.031704
 

 Parallel integral file used      31 records with       0 large values


 Task  times  cpu:        1.5s     wall:        2.3s
 
 
                                NWChem Input Module
                                -------------------
 
 
 Summary of allocated global arrays
-----------------------------------
  No active global arrays



                         GA Statistics for process    0
                         ------------------------------

       create   destroy   get      put      acc     scatter   gather  read&inc
calls:  197      197      746      276      243        0        0       15     
number of processes/call 2.53e+13 1.73e+13 9.34e+13 0.00e+00 0.00e+00
bytes total:             1.20e+06 3.79e+05 4.38e+05 0.00e+00 0.00e+00 1.20e+02
bytes remote:            3.02e+05 4.11e+04 1.09e+05 0.00e+00 0.00e+00 0.00e+00
Max memory consumed for GA by this process: 117752 bytes
 
MA_summarize_allocated_blocks: starting scan ...
MA_summarize_allocated_blocks: scan completed: 0 heap blocks, 0 stack blocks
MA usage statistics:

	allocation statistics:
					      heap	     stack
					      ----	     -----
	current number of blocks	         0	         0
	maximum number of blocks	        21	        53
	current total bytes		         0	         0
	maximum total bytes		   1258136	  22511192
	maximum total K-bytes		      1259	     22512
	maximum total M-bytes		         2	        23
 
 
                                     CITATION
                                     --------
                Please cite the following reference when publishing
                           results obtained with NWChem:
 
          E. Aprà, E. J. Bylaska, W. A. de Jong, N. Govind, K. Kowalski,
       T. P. Straatsma, M. Valiev, H. J. J. van Dam, Y. Alexeev, J. Anchell,
       V. Anisimov, F. W. Aquino, R. Atta-Fynn, J. Autschbach, N. P. Bauman,
     J. C. Becca, D. E. Bernholdt, K. Bhaskaran-Nair, S. Bogatko, P. Borowski,
        J. Boschen, J. Brabec, A. Bruner, E. Cauët, Y. Chen, G. N. Chuev,
      C. J. Cramer, J. Daily, M. J. O. Deegan, T. H. Dunning Jr., M. Dupuis,
   K. G. Dyall, G. I. Fann, S. A. Fischer, A. Fonari, H. Früchtl, L. Gagliardi,
      J. Garza, N. Gawande, S. Ghosh, K. Glaesemann, A. W. Götz, J. Hammond,
       V. Helms, E. D. Hermes, K. Hirao, S. Hirata, M. Jacquelin, L. Jensen,
   B. G. Johnson, H. Jónsson, R. A. Kendall, M. Klemm, R. Kobayashi, V. Konkov,
      S. Krishnamoorthy, M. Krishnan, Z. Lin, R. D. Lins, R. J. Littlefield,
      A. J. Logsdail, K. Lopata, W. Ma, A. V. Marenich, J. Martin del Campo,
   D. Mejia-Rodriguez, J. E. Moore, J. M. Mullin, T. Nakajima, D. R. Nascimento,
    J. A. Nichols, P. J. Nichols, J. Nieplocha, A. Otero-de-la-Roza, B. Palmer,
    A. Panyala, T. Pirojsirikul, B. Peng, R. Peverati, J. Pittner, L. Pollack,
   R. M. Richard, P. Sadayappan, G. C. Schatz, W. A. Shelton, D. W. Silverstein,
   D. M. A. Smith, T. A. Soares, D. Song, M. Swart, H. L. Taylor, G. S. Thomas,
            V. Tipparaju, D. G. Truhlar, K. Tsemekhman, T. Van Voorhis,
     Á. Vázquez-Mayagoitia, P. Verma, O. Villa, A. Vishnu, K. D. Vogiatzis,
        D. Wang, J. H. Weare, M. J. Williamson, T. L. Windus, K. Woliński,
        A. T. Wong, Q. Wu, C. Yang, Q. Yu, M. Zacharias, Z. Zhang, Y. Zhao,
                                and R. J. Harrison
                        "NWChem: Past, present, and future
                         J. Chem. Phys. 152, 184102 (2020)
                               doi:10.1063/5.0004997
 
                                      AUTHORS
                                      -------
     E. Apra, E. J. Bylaska, N. Govind, K. Kowalski, M. Valiev, W. A. de Jong,
      T. P. Straatsma, H. J. J. van Dam, D. Wang, T. L. Windus, N. P. Bauman,
       A. Panyala, J. Hammond, J. Autschbach, K. Bhaskaran-Nair, J. Brabec,
    K. Lopata, S. A. Fischer, S. Krishnamoorthy, M. Jacquelin, W. Ma, M. Klemm,
       O. Villa, Y. Chen, V. Anisimov, F. Aquino, S. Hirata, M. T. Hackler,
           Eric Hermes, L. Jensen, J. E. Moore, J. C. Becca, V. Konjkov,
            D. Mejia-Rodriguez, T. Risthaus, M. Malagoli, A. Marenich,
   A. Otero-de-la-Roza, J. Mullin, P. Nichols, R. Peverati, J. Pittner, Y. Zhao,
        P.-D. Fan, A. Fonari, M. J. Williamson, R. J. Harrison, J. R. Rehr,
      M. Dupuis, D. Silverstein, D. M. A. Smith, J. Nieplocha, V. Tipparaju,
      M. Krishnan, B. E. Van Kuiken, A. Vazquez-Mayagoitia, M. Swart, Q. Wu,
   T. Van Voorhis, A. A. Auer, M. Nooijen, L. D. Crosby, E. Brown, G. Cisneros,
     G. I. Fann, H. Fruchtl, J. Garza, K. Hirao, R. A. Kendall, J. A. Nichols,
       K. Tsemekhman, K. Wolinski, J. Anchell, D. E. Bernholdt, P. Borowski,
       T. Clark, D. Clerc, H. Dachsel, M. J. O. Deegan, K. Dyall, D. Elwood,
      E. Glendening, M. Gutowski, A. C. Hess, J. Jaffe, B. G. Johnson, J. Ju,
        R. Kobayashi, R. Kutteh, Z. Lin, R. Littlefield, X. Long, B. Meng,
      T. Nakajima, S. Niu, L. Pollack, M. Rosing, K. Glaesemann, G. Sandrone,
      M. Stave, H. Taylor, G. Thomas, J. H. van Lenthe, A. T. Wong, Z. Zhang.

 Total times  cpu:        1.5s     wall:        2.4s
mpprun info: Elapsed time (h:m:s):  0:00:03.559177
